# vtk DataFile Version 2.0
Armadillo's signed distance function (grid size: 1% of bbox diagonal)
ASCII
DATASET STRUCTURED_POINTS
DIMENSIONS 71 84 65
ORIGIN -80.081297 -73.534104 -73.217447
SPACING 2.288037 2.288037 2.288037
POINT_DATA 387660
SCALARS my_voxel_attr float 1
LOOKUP_TABLE default
75.500538
74.666479
73.893877
73.184680
72.454496
71.607775
70.824875
70.107937
69.459001
68.879991
68.372682
67.938681
67.579400
67.295431
67.084498
66.950869
66.895277
66.917916
67.010730
67.174739
67.416046
67.733827
68.127011
68.594300
69.134194
69.745005
70.424888
71.171864
71.983844
72.858656
73.794063
74.787794
75.837554
76.941051
76.376477
75.505494
74.694466
73.945366
73.260093
72.640454
72.088141
71.604713
71.191572
70.849948
70.580880
70.385199
70.263519
70.216225
70.243467
70.345158
70.520977
70.770370
71.092563
71.486572
71.950606
72.471663
73.060029
73.714748
74.434067
75.216135
75.830109
76.491168
77.214392
77.998051
78.840345
79.739414
80.693361
81.700265
82.758191
83.865209
85.019401
74.922589
74.082024
73.303262
72.588295
71.852051
70.998145
70.208448
69.485149
68.830342
68.245998
67.733021
67.290306
66.922818
66.631915
66.418603
66.283631
66.227478
66.250346
66.352151
66.524497
66.768154
67.089004
67.485945
67.957643
68.502554
69.118947
69.804928
70.558468
71.377426
72.259579
73.202643
74.204294
75.262193
76.374004
75.779316
74.901390
74.083749
73.328410
72.637317
72.012319
71.455151
70.967411
70.550538
70.205795
69.934248
69.736754
69.613940
69.566205
69.593701
69.696340
69.873791
70.125486
70.450628
70.847586
71.303314
71.828394
72.421987
73.082421
73.807904
74.596536
75.254692
75.920761
76.649367
77.438744
78.287056
79.192407
80.152865
81.166473
82.231267
83.345284
84.506578
74.410535
73.564119
72.779816
72.059655
71.317868
70.457575
69.661751
68.931434
68.266705
67.672820
67.151681
66.704995
66.334264
66.040768
65.825541
65.689350
65.632690
65.655764
65.758490
65.940495
66.193050
66.516673
66.917009
67.392689
67.942132
68.563563
69.255046
70.014504
70.839751
71.728517
72.678472
73.687248
74.752466
75.871746
75.247017
74.362806
73.539177
72.778187
72.081818
71.451962
70.890390
70.398737
69.978476
69.630901
69.357104
69.157961
69.034118
68.985981
69.013709
69.117209
69.296143
69.549928
69.877119
70.264668
70.723469
71.252822
71.851170
72.516803
73.247888
74.042486
74.744913
75.415484
76.148925
76.943437
77.797150
78.708136
79.674432
80.694050
81.764996
82.885281
84.052930
73.965745
73.114179
72.324997
71.600262
70.840990
69.981447
69.175572
68.436736
67.767132
67.168831
66.643751
66.193637
65.820027
65.524227
65.307297
65.170024
65.112911
65.136170
65.239714
65.423162
65.685845
66.018720
66.422057
66.901257
67.454702
68.080583
68.776922
69.541601
70.372395
71.266990
72.223015
73.238065
74.309722
75.435572
74.780964
73.891176
73.062231
72.296220
71.595164
70.960988
70.395500
69.900366
69.477091
69.126995
68.851194
68.650583
68.525823
68.477329
68.505263
68.609530
68.789785
69.044793
69.361553
69.751274
70.213430
70.746600
71.349193
72.019466
72.755548
73.555465
74.302124
74.976656
75.714347
76.513372
77.371830
78.287766
79.259187
80.284079
81.360422
82.486201
83.659421
73.579160
72.723068
71.929595
71.200835
70.434065
69.569493
68.758791
68.015428
67.341635
66.739518
66.211035
65.757959
65.381858
65.084068
64.865666
64.727456
64.669952
64.693370
64.797622
64.982318
65.246776
65.590030
66.002754
66.484976
67.041858
67.671557
68.372061
69.141219
69.976766
70.876355
71.837579
72.857644
73.930787
75.058019
74.374100
73.480727
72.647098
71.876663
71.171475
70.533489
69.964546
69.466340
69.040404
68.688082
68.410512
68.208605
68.083036
68.034226
68.062341
68.167286
68.348707
68.599322
68.917429
69.309647
69.774728
70.311225
70.917517
71.591832
72.332266
73.136812
73.927528
74.605447
75.346773
76.149655
77.012167
77.932330
78.908127
79.937520
81.018467
82.148933
83.326901
73.258955
72.399077
71.602014
70.869885
70.099495
69.230746
68.416029
67.668901
66.991623
66.386332
65.855014
65.399472
65.021298
64.721848
64.502220
64.363229
64.305400
64.328951
64.433792
64.619528
64.885464
65.230620
65.653746
66.145265
66.704983
67.337832
68.041773
68.814622
69.653621
70.553027
71.514081
72.534601
73.612112
74.744150
74.030831
73.133264
72.295629
71.521408
70.812682
70.171435
69.599532
69.098695
68.670478
68.316249
68.037161
67.834143
67.707879
67.658799
67.687070
67.792596
67.975017
68.227004
68.546839
68.941166
69.408716
69.948020
70.557433
71.235156
71.979260
72.787708
73.622167
74.302872
75.047187
75.853240
76.719085
77.642721
78.622113
79.655202
80.739929
81.874240
83.056105
73.009085
72.146229
71.346341
70.611561
69.838322
68.966282
68.148404
67.398309
66.718284
66.110491
65.576938
65.119451
64.739641
64.438883
64.218287
64.078680
64.020594
64.044249
64.149556
64.336112
64.603215
64.949871
65.374814
65.876529
66.445233
67.079939
67.782005
68.553072
69.391048
70.293538
71.258093
72.282227
73.363445
74.499262
73.756975
72.856034
72.015175
71.237906
70.526331
69.882456
69.308168
68.805210
68.375156
68.019388
67.739078
67.535164
67.408340
67.359041
67.387438
67.493432
67.676660
67.929754
68.250982
68.647008
69.116548
69.658114
70.270042
70.950510
71.697568
72.509157
73.383136
74.069772
74.816406
75.624918
76.493348
77.419677
78.401855
79.437809
80.525464
81.662755
82.847636
72.830273
71.965273
71.163351
70.426662
69.651370
68.776961
67.956804
67.204571
66.522565
65.912967
65.377802
64.918911
64.537922
64.236219
64.014924
63.874874
63.816602
63.840332
63.945975
64.133124
64.401069
64.748807
65.175060
65.678301
66.253195
66.885492
67.589366
68.362606
69.202888
70.107801
71.074876
72.101612
73.185499
74.324035
73.553307
72.649841
71.806566
71.027015
70.313306
69.667462
69.091387
68.586840
68.155408
67.798487
67.517259
67.312673
67.185429
67.135967
67.164458
67.270804
67.454636
67.708560
68.030832
68.428133
68.899164
69.442426
70.056237
70.738762
71.488033
72.301974
73.178428
73.906803
74.655067
75.465309
76.335554
77.263775
78.247910
79.285875
80.375587
81.514968
82.701967
72.723044
71.856753
71.053606
70.315768
69.539239
68.663402
67.841872
67.088350
66.405151
65.794465
65.258329
64.798592
64.416890
64.114618
63.892902
63.752583
63.694200
63.717976
63.823821
64.011327
64.279780
64.628170
65.055214
65.559375
66.135303
66.768716
67.473808
68.248358
69.090029
69.996401
70.964994
71.993298
73.078791
74.218964
73.420411
72.515289
71.670432
70.889383
70.174274
69.527139
68.949892
68.444302
68.011965
67.654288
67.372458
67.167431
67.039912
66.990342
67.018895
67.125471
67.309700
67.559803
67.882781
68.280943
68.752983
69.297390
69.912475
70.596391
71.347156
72.162686
73.040811
73.814432
74.563623
75.374847
76.246125
77.175422
78.160669
79.199778
80.290657
81.431227
82.615244
72.687714
71.820997
71.017446
70.279228
69.502291
68.625982
67.803999
67.050051
66.366458
65.755413
65.218955
64.758939
64.377002
64.074542
63.852687
63.712279
63.653859
63.677650
63.783562
63.971186
64.239806
64.588413
65.015718
65.520183
66.096452
66.730234
67.435728
68.210710
69.052841
69.959694
70.928789
71.957610
73.043633
74.184346
73.358672
72.452780
71.607185
70.825439
70.109677
69.461940
68.884147
68.378070
67.945313
67.587282
67.305172
67.099940
66.972291
66.922671
66.951253
67.057937
67.231153
67.478165
67.801532
68.200168
68.672763
69.217802
69.833588
70.518268
71.269857
72.086261
72.965306
73.782754
74.532264
75.343826
76.215458
77.145124
78.130754
79.170255
80.261536
81.402514
82.584146
72.724388
71.858113
71.054982
70.317158
69.540645
68.664826
67.843313
67.089808
66.406623
65.795951
65.259827
64.800101
64.418408
64.116143
63.894432
63.754117
63.695735
63.719511
63.825353
64.012854
64.281301
64.629683
65.056717
65.560867
66.136781
66.770180
67.475257
68.249790
69.091444
69.997798
70.966372
71.994656
73.080129
74.220281
73.368271
72.462498
71.617017
70.835380
70.119720
69.472077
68.894368
68.388367
67.955675
67.597700
67.315633
67.110433
66.982805
66.933192
66.961770
67.057210
67.227033
67.474060
67.797446
68.196107
68.668729
69.213800
69.829621
70.514340
71.265970
72.082419
72.961510
73.818885
74.568031
75.379208
76.250436
77.179681
78.164874
79.203928
80.294751
81.435264
82.616427
72.832958
71.967990
71.166099
70.429439
69.654178
68.779804
67.959681
67.207480
66.525504
65.915934
65.380793
64.921923
64.540951
64.239263
64.017979
63.877935
63.819666
63.843395
63.949033
64.136173
64.404105
64.751826
65.178061
65.681279
66.255165
66.888415
67.592259
68.365466
69.205714
70.110590
71.077627
72.104324
73.188171
74.326666
73.449177
72.544415
71.699900
70.919176
70.204371
69.557516
68.980523
68.475158
68.043018
67.685505
67.403806
67.198874
67.071414
67.021868
67.039178
67.131108
67.300744
67.547502
67.870538
68.268772
68.740895
69.285397
69.900588
70.584618
71.335508
72.151170
73.029433
73.925847
74.673920
75.483959
76.353992
77.281992
78.265897
79.303627
80.393098
81.532235
82.712013
73.013102
72.150294
71.350452
70.615715
69.842521
68.970535
68.152708
67.402661
66.722680
66.114928
65.581411
65.123955
64.744172
64.443434
64.222854
64.083258
64.025175
64.048829
64.154128
64.340671
64.607755
64.954387
65.379300
65.871688
66.433711
67.069121
67.775852
68.551699
69.394091
70.297711
71.262209
72.286285
73.367443
74.503199
73.601158
72.698286
71.855581
71.076567
70.363360
69.717980
69.142326
68.638153
68.207046
67.850397
67.569385
67.364957
67.237812
67.177182
67.191055
67.282777
67.452032
67.698238
68.020559
68.417919
68.889020
69.432361
70.046261
70.728882
71.478256
72.292308
73.168877
74.103334
74.849634
75.657791
76.525848
77.451789
78.433564
79.469105
80.556338
81.693198
82.870685
73.263171
72.403343
71.606327
70.874243
70.105074
69.236394
68.421745
67.674680
66.997460
66.392223
65.860952
65.405451
65.027312
64.727891
64.508283
64.369305
64.311481
64.335030
64.439861
64.625580
64.891491
65.235812
65.645244
66.130073
66.689918
67.322909
68.027004
68.800020
69.639660
70.543548
71.509246
72.534285
73.616049
74.749382
73.823773
72.923658
72.083587
71.307064
70.596186
69.952954
69.379250
68.876811
68.447206
68.091815
67.811804
67.608109
67.470264
67.406457
67.420283
67.511694
67.680376
67.925754
68.247001
68.643050
69.112616
69.654213
70.266175
70.946680
71.693778
72.505410
73.379433
74.313648
75.094682
75.900230
76.765545
77.688629
78.667449
79.699951
80.784077
81.917777
83.092082
73.571356
72.715172
71.921612
71.192770
70.441005
69.576520
68.765900
68.022615
67.348894
66.746843
66.218418
65.765393
65.389335
65.091579
64.873202
64.735008
64.677511
64.700926
64.805166
64.989840
65.249592
65.577871
65.983903
66.466262
67.023299
67.653171
68.353864
69.123224
69.958986
70.858800
71.820259
72.840922
73.918337
75.050058
74.116386
73.219868
72.383235
71.609961
70.902120
70.261689
69.690527
69.190348
68.762703
68.408950
68.130243
67.916418
67.775833
67.712313
67.726076
67.817075
67.985000
68.229283
68.549106
68.943420
69.410955
69.950242
70.559636
71.237338
71.981419
72.789844
73.660493
74.591187
75.408388
76.210621
77.072451
77.991903
78.966964
79.995600
81.075773
82.205450
83.375703
73.949079
73.097319
72.307953
71.583045
70.849271
69.989829
69.184052
68.445308
67.775788
67.177564
66.652553
66.202499
65.828939
65.533180
65.316279
65.179025
65.121920
65.145175
65.248705
65.422313
65.670061
65.996249
66.399722
66.879082
67.432710
68.058793
68.755352
69.520269
70.351314
71.246174
72.202475
73.217810
74.289758
75.415906
74.468790
73.575228
72.742682
71.973270
71.269038
70.631934
70.063790
69.566295
69.140975
68.789168
68.511495
68.296167
68.156365
68.093200
68.106887
68.197378
68.364368
68.607300
68.925370
69.317543
69.782571
70.319008
70.925234
71.599476
72.339832
73.144295
74.010775
74.937119
75.789901
76.588138
77.445767
78.360838
79.331364
80.355336
81.430737
82.555557
83.720917
74.395283
73.548691
72.764222
72.043905
71.328630
70.475034
69.674868
68.941384
68.276729
67.682932
67.161873
66.715254
66.344581
66.051131
65.835937
65.699768
65.643116
65.665176
65.754007
65.921142
66.167022
66.490772
66.891263
67.367125
67.916774
68.538435
69.230169
69.989897
70.815431
71.704499
72.654767
73.663869
74.729419
75.832875
74.885700
73.997172
73.169428
72.404551
71.704554
71.071354
70.506751
70.012404
69.589811
69.239778
68.951049
68.736457
68.597552
68.534794
68.548392
68.638301
68.804221
69.045606
69.361666
69.751386
70.213541
70.746710
71.349302
72.019574
72.755655
73.555571
74.417261
75.338608
76.238201
77.031793
77.884537
78.794513
79.759762
80.778303
81.848147
82.967309
84.126964
74.908747
74.068024
73.289114
72.574007
71.874619
71.016530
70.222535
69.494831
68.835520
68.246586
67.729862
67.287014
66.919508
66.628590
66.415267
66.280289
66.224133
66.242284
66.329311
66.495001
66.738766
67.059756
67.456869
67.928769
68.473910
69.090558
69.776819
70.530659
71.349936
72.232425
73.175839
74.177851
75.236123
76.310959
75.369793
74.487040
73.664800
72.905121
72.209976
71.581248
71.020698
70.529954
70.109979
69.749833
69.462381
69.249374
69.111500
69.049209
69.062706
69.151946
69.316637
69.556243
69.869993
70.256894
70.715745
71.245156
71.843568
72.509271
73.240431
74.035108
74.891282
75.806867
76.752119
77.540451
78.387662
79.291864
80.251132
81.263514
82.327053
83.439791
84.592970
75.488097
74.653899
73.881166
73.171845
72.472917
71.621997
70.834789
70.113440
69.460001
68.876406
68.364444
67.925733
67.561701
67.273560
67.062289
66.928616
66.873005
66.891693
66.977876
67.141965
67.383390
67.701324
68.094695
68.562205
69.102349
69.713439
70.393627
71.140932
71.953261
72.828440
73.764230
74.758357
75.808525
76.854215
75.919784
75.043500
74.227425
73.473563
72.783848
72.160119
71.604102
71.116890
70.687848
70.329829
70.044757
69.833526
69.696807
69.635040
69.648423
69.736914
69.900227
70.137839
70.448999
70.832737
71.287882
71.813076
72.406793
73.067365
73.792996
74.581786
75.431755
76.340859
77.307011
78.112843
78.953912
79.851703
80.804324
81.809862
82.866389
83.971665
85.117949
76.131830
75.304763
74.538777
73.835774
73.137931
72.294838
71.515036
70.800618
70.153581
69.575804
69.069025
68.634818
68.274567
67.989448
67.780408
67.648154
67.593135
67.612330
67.697596
67.859944
68.098824
68.413433
68.802733
69.265464
69.800167
70.405200
71.078769
71.818944
72.623690
73.490885
74.418346
75.403850
76.445151
77.461270
76.534251
75.665084
74.855786
74.108316
73.424564
72.806325
72.254794
71.759633
71.333636
70.978874
70.696419
70.487141
70.351693
70.290501
70.303760
70.391427
70.553224
70.788645
71.096957
71.477216
71.928283
72.448834
73.037384
73.692304
74.411840
75.194139
76.037263
76.939213
77.897944
78.747579
79.581928
80.471208
81.413954
82.409457
83.455830
84.551184
85.693642
76.838326
76.018946
75.260230
74.564029
73.867857
73.033191
72.261358
71.554391
70.914232
70.342703
69.841489
69.412115
69.055919
68.774039
68.567391
68.436657
68.382273
68.401944
68.486227
68.646710
68.882862
69.193906
69.578839
70.036443
70.565304
71.163832
71.830287
72.562797
73.359384
74.217983
75.136470
76.112676
77.142968
77.795247
77.211656
76.350202
75.548242
74.807692
74.130391
73.517610
72.959293
72.468137
72.046330
71.695094
71.415472
71.208308
71.074234
71.013664
71.026788
71.113564
71.273722
71.506770
71.811999
72.188492
72.635142
73.150663
73.733611
74.382401
75.095326
75.870578
76.706267
77.600441
78.551102
79.434664
80.259217
81.139930
82.074995
83.062576
84.100823
85.187885
86.321916
77.605873
76.794683
76.043707
75.354745
74.660792
73.835090
73.071728
72.372678
71.739821
71.174921
70.679610
70.255358
69.903459
69.625010
69.420895
69.291772
69.238059
69.258176
69.341419
69.499927
69.733189
70.040458
70.420764
70.872931
71.395596
71.987221
72.646123
73.370489
74.158399
75.007853
75.722522
76.370761
77.004193
77.630787
77.600969
76.948169
76.303050
75.569897
74.899020
74.280633
73.727299
73.241294
72.823965
72.476498
72.199902
71.994995
71.862389
71.802484
71.815464
71.901287
72.059695
72.290210
72.592144
72.964612
73.406540
73.916681
74.416239
74.980657
75.610128
76.303042
77.052616
77.854650
78.704649
79.609301
80.568791
81.581184
82.644535
83.756905
84.802663
85.880841
87.005840
78.432677
77.630127
76.887312
76.205977
75.514751
74.698489
73.944041
73.253316
72.628133
72.070197
71.581080
71.162203
70.814810
70.539959
70.338500
70.211064
70.158055
70.178576
70.260740
70.417179
70.647413
70.950722
71.326175
71.772639
72.288798
72.800892
73.266752
73.796403
74.338664
74.780448
75.289011
75.850944
76.436243
77.061523
77.050464
76.394652
75.789175
75.246844
74.716223
74.220465
73.786295
73.408234
73.099316
72.860973
72.592360
72.359161
72.179495
72.057595
72.002427
72.019944
72.110092
72.272599
72.506979
72.812538
73.177258
73.609055
74.109008
74.675748
75.307767
76.003438
76.761028
77.573688
78.426732
79.334553
80.297326
81.313099
82.379912
83.495807
84.658845
85.867083
87.108556
79.316886
78.523374
77.789088
77.115722
76.427690
75.621283
74.876133
74.194086
73.576897
73.026210
72.543539
72.130251
71.787543
71.516431
71.317730
71.192047
71.139769
71.094963
71.024262
71.009861
71.058906
71.181502
71.377269
71.645607
71.985705
72.396552
72.865117
73.400425
73.863077
74.307688
74.819465
75.343808
75.909187
76.538774
76.550347
75.901428
75.296690
74.750786
74.267519
73.788999
73.352433
72.980375
72.669638
72.429881
72.232147
72.068185
71.928871
71.813199
71.757843
71.775420
71.865874
72.028932
72.264103
72.570685
72.936614
73.369827
73.871399
74.439948
75.073952
75.771770
76.531654
77.351776
78.214789
79.125041
80.090333
81.108698
82.178164
83.296762
84.462541
85.673548
86.917785
80.256602
79.472473
78.739903
78.062169
77.397519
76.601323
75.844975
75.085664
74.388839
73.751381
73.167138
72.649430
72.194865
71.775077
71.426151
71.141968
70.923840
70.779043
70.694157
70.669381
70.718663
70.841847
71.038550
71.308163
71.649863
72.062624
72.533347
73.056534
73.455710
73.888769
74.355987
74.879004
75.447866
76.057607
76.028580
75.445144
74.843505
74.307476
73.810717
73.369791
72.982557
72.612814
72.300713
72.059728
71.838256
71.673394
71.581323
71.558091
71.585591
71.603210
71.693882
71.857330
72.093060
72.400366
72.767152
73.201368
73.704086
74.273916
74.909326
75.608663
76.370170
77.192007
78.067084
78.981284
79.948312
80.968463
82.039757
83.160217
84.327883
85.540797
86.786937
80.227942
79.628569
79.090869
78.263960
77.325503
76.444030
75.619723
74.852745
74.148463
73.508680
72.934639
72.416129
71.960243
71.539079
71.181683
70.889867
70.670961
70.513062
70.426523
70.401653
70.451122
70.574774
70.772219
71.042842
71.385812
71.800092
72.272524
72.703180
73.063277
73.472675
73.942522
74.474601
75.042537
75.185941
75.142687
75.037754
74.432822
73.893814
73.416922
72.977630
72.601708
72.281234
71.998177
71.740577
71.513445
71.347831
71.255340
71.235387
71.276048
71.390013
71.576973
71.758309
71.994363
72.302089
72.669371
73.104167
73.607549
74.178121
74.814344
75.514561
76.277007
77.099838
77.975962
78.901394
79.871608
80.892727
81.965011
83.086479
84.254710
85.461737
86.707882
78.102042
77.486227
76.933556
76.445397
76.022995
75.667451
75.379710
74.683313
73.977419
73.336143
72.761195
72.253686
71.786230
71.363008
70.998258
70.705686
70.478891
70.319225
70.232448
70.207509
70.257115
70.381107
70.579094
70.850455
71.194352
71.603037
72.071385
72.355358
72.710115
73.122073
73.597897
74.132450
74.467042
74.360436
74.316702
74.337633
74.090478
73.548961
73.069818
72.646175
72.270594
71.953244
71.702541
71.481470
71.253511
71.087292
70.994462
70.974435
71.015245
71.129628
71.317271
71.577598
71.909819
72.276146
72.643360
73.078311
73.581870
74.152639
74.789080
75.489530
76.252227
77.075322
77.951685
78.877414
79.857550
80.876735
81.946758
83.066037
84.232606
85.439790
86.686251
75.985562
75.352451
74.784013
74.281730
73.846953
73.480880
73.184542
72.954444
72.786213
72.677691
72.639857
72.150890
71.668896
71.244980
70.879648
70.586584
70.355891
70.195946
70.105089
70.080105
70.129800
70.254017
70.452361
70.724209
71.068617
71.471704
71.777060
72.062193
72.418387
72.831994
73.314126
73.791911
73.704540
73.596830
73.531748
73.486181
73.511835
73.268484
72.784165
72.364104
71.989110
71.677649
71.429952
71.246995
71.060995
70.899552
70.806476
70.784090
70.824968
70.939658
71.127802
71.388820
71.721152
72.111800
72.572443
73.101830
73.613725
74.184249
74.820420
75.520580
76.282966
77.105733
77.982568
78.907936
79.888134
80.918266
81.987747
83.106473
84.272483
85.479104
86.724999
73.879310
73.227992
72.642930
72.125739
71.677885
71.300677
70.995239
70.759411
70.584271
70.471124
70.432105
70.467394
70.576881
70.760221
70.823087
70.529759
70.296737
70.136657
70.045722
70.020717
70.070455
70.194777
70.393288
70.665363
71.000034
71.340979
71.554723
71.840739
72.198025
72.612888
72.288353
72.033324
71.774787
71.581984
71.461955
71.415067
71.441465
71.541066
71.642073
71.805255
71.761388
71.454471
71.210475
71.035488
70.882642
70.762007
70.678958
70.655896
70.696848
70.811745
71.000228
71.261713
71.594635
71.985971
72.447413
72.975519
73.559870
74.210179
74.915486
75.620312
76.381703
77.203418
78.080140
79.004365
79.983381
81.015203
82.092511
83.209829
84.374410
85.579594
86.416109
71.784186
71.113682
70.511080
69.978134
69.516446
69.127444
68.812361
68.570458
68.386769
68.269920
68.229642
68.266070
68.379082
68.568299
68.833092
69.172594
69.585711
70.071141
70.061067
70.036067
70.085794
70.210089
70.404205
70.662354
70.938751
71.149074
71.405047
71.488287
71.009564
70.601781
70.266172
70.000665
69.727923
69.529444
69.405866
69.357588
69.384769
69.487318
69.601118
69.769073
70.011440
70.327449
70.716114
70.878542
70.719893
70.608022
70.563503
70.581398
70.642641
70.757627
70.946253
71.207937
71.541109
71.932735
72.392312
72.909566
73.494426
74.145309
74.851227
75.616007
76.441644
77.326190
78.244527
79.166832
80.143864
81.173646
82.081441
82.668974
83.315160
84.007415
84.754926
69.701196
69.010456
68.389324
67.839711
67.363369
66.961861
66.636539
66.387986
66.195341
66.074617
66.032999
66.070639
66.187399
66.382863
66.656339
67.006870
67.433256
67.934069
68.507675
69.152264
69.865872
70.281588
70.465932
70.658588
70.806283
70.715055
70.081820
69.518158
69.025773
68.606200
68.260781
67.977397
67.696504
67.492052
67.364736
67.314994
67.342999
67.448653
67.575993
67.748969
67.998536
68.323856
68.723853
69.197231
69.742497
70.357979
70.478049
70.500590
70.577158
70.719935
70.923276
71.198826
71.543479
71.948657
72.398173
72.915369
73.500184
74.150447
74.852474
75.617241
76.442865
77.327397
78.268840
78.959906
79.377893
79.854278
80.392983
80.992766
81.652279
82.361215
83.123531
67.631458
66.919358
66.278632
65.711368
65.219483
64.804693
64.468487
64.212086
64.010674
63.885821
63.842777
63.881707
64.002461
64.204577
64.487291
64.849548
65.290024
65.807149
66.399132
67.063991
67.799581
68.595367
69.452084
70.271727
69.498058
68.791822
68.147861
67.568068
67.061366
66.629424
66.273702
65.971435
65.681964
65.471220
65.339967
65.288683
65.317557
65.426482
65.568165
65.746424
66.003563
66.338667
66.750561
67.237833
67.798859
68.426538
69.115327
69.872282
70.562463
70.705337
70.911732
71.187326
71.535077
71.945479
72.412054
72.944554
73.536775
74.187286
74.902068
75.679069
76.357594
76.602714
76.905027
77.273447
77.695633
78.182269
78.732415
79.344751
80.017848
80.746293
81.523711
65.576229
64.841562
64.180097
63.594116
63.085725
62.656811
62.309016
62.043704
61.833484
61.704226
61.659659
61.699966
61.824982
62.034193
62.326752
62.701493
63.156952
63.691399
64.302863
64.989170
65.747658
66.562806
67.445346
68.393073
67.610336
66.884170
66.229125
65.638302
65.116586
64.671655
64.305105
63.984405
63.685903
63.468532
63.333129
63.280218
63.310008
63.422381
63.579273
63.763092
64.028197
64.373585
64.797971
65.299815
65.873205
66.509744
67.218177
67.959218
68.747973
69.603035
70.521993
71.243850
71.591326
72.004525
72.468662
73.001592
73.591494
74.241526
74.378156
74.495592
74.682974
74.933571
75.242591
75.613870
76.045006
76.542138
77.103988
77.729153
78.416119
79.159624
79.885747
63.536917
62.778389
62.094950
61.489101
60.963158
60.519203
60.159051
59.884215
59.664591
59.530624
59.484428
59.526208
59.655779
59.872571
60.175640
60.563693
61.035107
61.587969
62.220108
62.929134
63.706851
64.547348
65.457067
66.433165
65.748042
65.001075
64.326858
63.725386
63.187878
62.729269
62.351301
62.018128
61.710115
61.485760
61.345980
61.291355
61.322110
61.438119
61.611150
61.800823
62.074310
62.430508
62.868012
63.382122
63.961740
64.617112
65.305473
66.060353
66.871856
67.750600
68.694343
69.700444
70.766244
71.888593
72.596335
72.774179
72.688320
72.674430
72.729943
72.850036
73.041639
73.297823
73.613710
73.987562
74.428119
74.935978
75.509780
76.148034
76.823610
77.548159
78.279164
61.515104
60.731329
60.024586
59.397624
58.852993
58.392997
58.019648
57.734354
57.504932
57.365922
57.317982
57.361340
57.495790
57.720695
58.035003
58.437272
58.925700
59.498166
60.152270
60.885382
61.682948
62.550647
63.488982
64.494873
63.913402
63.144735
62.450480
61.833143
61.283893
60.810927
60.420960
60.074642
59.756612
59.524895
59.380499
59.324063
59.355838
59.475683
59.665852
59.861689
60.143994
60.511556
60.960801
61.478475
62.075328
62.703480
63.408018
64.186172
65.022125
65.925529
66.895025
67.927782
69.020960
70.160011
71.323960
71.162826
71.075020
71.060815
71.117152
71.239964
71.434428
71.686230
72.009187
72.397040
72.847217
73.366020
73.931109
74.543398
75.220329
75.960172
76.702039
59.512544
58.702067
57.970590
57.321167
56.756614
56.279485
55.892021
55.593882
55.355590
55.211168
55.161356
55.206408
55.346092
55.579696
55.906043
56.323519
56.830117
57.423478
58.100944
58.857052
59.678133
60.574556
61.543028
62.580205
62.108854
61.317570
60.602387
59.966027
59.407016
58.918985
58.516410
58.156230
57.827651
57.588173
57.438909
57.380564
57.413414
57.537305
57.745686
57.948013
58.239594
58.617885
59.068113
59.594313
60.163017
60.810926
61.537135
62.338909
63.201096
64.130158
65.126386
66.186746
67.302793
68.462880
69.678807
69.589401
69.499607
69.485080
69.542249
69.667110
69.853354
70.110115
70.440299
70.839760
71.272243
71.775092
72.336090
72.961766
73.653235
74.401749
75.149683
57.526207
56.692516
55.934765
55.261422
54.675605
54.180154
53.777566
53.465634
53.217813
53.067574
53.015747
53.062621
53.207934
53.450884
53.790147
54.223916
54.749945
55.365605
56.067941
56.844667
57.694395
58.621161
59.621372
60.691398
60.330207
59.515280
58.778171
58.121842
57.549057
57.056068
56.640254
56.265460
55.925773
55.678115
55.523716
55.463356
55.497342
55.625500
55.847182
56.062401
56.363153
56.738845
57.168420
57.685615
58.277793
58.946427
59.695323
60.521501
61.411323
62.367053
63.388478
64.470355
65.611546
66.801010
68.046640
68.056534
67.964715
67.948224
67.995956
68.120548
68.311594
68.574128
68.879201
69.248359
69.690718
70.199664
70.770277
71.409674
72.116026
72.854958
73.583059
55.561629
54.704846
53.919169
53.220331
52.611792
52.096717
51.677901
51.351130
51.093054
50.936549
50.882551
50.931388
51.082764
51.335772
51.688920
52.140173
52.687011
53.326492
54.055254
54.853898
55.733986
56.692808
57.726440
58.830941
58.547556
57.731655
56.986367
56.309157
55.717740
55.214872
54.795409
54.405211
54.053835
53.797560
53.637749
53.575264
53.610447
53.743104
53.972519
54.194954
54.470602
54.825938
55.270382
55.805171
56.422370
57.112730
57.885354
58.736997
59.653420
60.629408
61.674796
62.786192
63.957441
65.177099
66.453175
66.566370
66.469602
66.439646
66.488461
66.615873
66.793019
67.017592
67.319226
67.696891
68.144723
68.656188
69.239522
69.892924
70.614449
71.239367
71.877332
53.622709
52.740256
51.926158
51.200124
50.567280
50.031161
49.594904
49.252141
48.983007
48.819737
48.763396
48.814353
48.972273
49.236128
49.604226
50.074269
50.643419
51.308376
52.059557
52.887184
53.799454
54.792140
55.860953
57.001612
56.770974
55.934136
55.166972
54.485127
53.876653
53.356437
52.930097
52.548389
52.203310
51.949714
51.784200
51.719476
51.755920
51.878526
52.078483
52.280422
52.566111
52.942805
53.402924
53.956225
54.598950
55.312900
56.110313
56.987734
57.919682
58.924313
59.999416
61.141275
62.343434
63.594055
64.901264
65.106402
65.007258
64.976629
65.026542
65.110450
65.262127
65.491950
65.800578
66.184243
66.632220
67.155206
67.751464
68.306817
68.831434
69.427528
70.066014
51.712333
50.796792
49.958435
49.203374
48.544506
47.985793
47.530768
47.170736
46.889657
46.719073
46.660195
46.713446
46.878445
47.154017
47.538240
48.028507
48.621609
49.313837
50.087641
50.947312
51.893696
52.922140
54.027960
55.206505
55.031430
54.168136
53.375595
52.670595
52.040613
51.501854
51.035603
50.596078
50.238990
49.982785
49.830430
49.769661
49.787829
49.901423
50.109270
50.397046
50.693351
51.090504
51.569367
52.142129
52.805722
53.542734
54.366117
55.266576
56.225522
57.259885
58.365655
59.538855
60.772721
62.055004
63.393957
63.668959
63.574080
63.543938
63.535710
63.607361
63.761088
63.996302
64.312108
64.706619
65.164964
65.642530
66.029890
66.493768
67.032576
67.635951
68.261689
49.833785
48.883073
48.019108
47.233056
46.546306
45.963310
45.488058
45.109130
44.815345
44.636835
44.575207
44.630946
44.803614
45.091868
45.493510
46.005572
46.624415
47.343741
48.143706
49.037467
50.019998
51.086177
52.230882
53.449067
53.325330
52.433908
51.614745
50.885354
50.241688
49.680593
49.122659
48.666006
48.303177
48.036648
47.878100
47.814850
47.833760
47.951984
48.168243
48.491341
48.855970
49.267936
49.773459
50.366647
51.044434
51.806508
52.657047
53.586233
54.574713
55.639773
56.777105
57.982456
59.248743
60.563302
61.934512
62.187172
62.087269
62.071007
62.076823
62.150156
62.307479
62.548159
62.871240
63.251681
63.517538
63.835820
64.234076
64.710829
65.238972
65.813219
66.456121
47.990803
47.002828
46.107318
45.292619
44.575984
43.966870
43.469490
43.065555
42.762842
42.575726
42.511110
42.569552
42.750547
43.052549
43.473037
44.008614
44.655140
45.397628
46.231280
47.161298
48.182103
49.288055
50.473556
51.733138
51.664192
50.743597
49.896691
49.141807
48.482988
47.822152
47.243081
46.768079
46.399360
46.121910
45.956756
45.890858
45.910561
46.033724
46.258952
46.587253
47.004776
47.485679
48.012886
48.627556
49.326407
50.114614
50.993380
51.952330
52.971309
54.067963
55.237667
56.475883
57.775200
59.122531
60.526390
60.752613
60.650347
60.633700
60.663695